# vtk DataFile Version 2.0
FeenoX VTK output
ASCII
DATASET UNSTRUCTURED_GRID
POINTS 1089 double
-1 -1 0
1 -1 0
1 1 0
-1 1 0
-0.9375 -1 0
-0.875 -1 0
-0.8125 -1 0
-0.75 -1 0
-0.6875 -1 0
-0.625 -1 0
-0.5625 -1 0
-0.5 -1 0
-0.4375 -1 0
-0.375 -1 0
-0.3125 -1 0
-0.25 -1 0
-0.1875 -1 0
-0.125 -1 0
-0.0625 -1 0
0 -1 0
0.0625 -1 0
0.125 -1 0
0.1875 -1 0
0.25 -1 0
0.3125 -1 0
0.375 -1 0
0.4375 -1 0
0.5 -1 0
0.5625 -1 0
0.625 -1 0
0.6875 -1 0
0.75 -1 0
0.8125 -1 0
0.875 -1 0
0.9375 -1 0
1 -0.9375 0
1 -0.875 0
1 -0.8125 0
1 -0.75 0
1 -0.6875 0
1 -0.625 0
1 -0.5625 0
1 -0.5 0
1 -0.4375 0
1 -0.375 0
1 -0.3125 0
1 -0.25 0
1 -0.1875 0
1 -0.125 0
1 -0.0625 0
1 0 0
1 0.0625 0
1 0.125 0
1 0.1875 0
1 0.25 0
1 0.3125 0
1 0.375 0
1 0.4375 0
1 0.5 0
1 0.5625 0
1 0.625 0
1 0.6875 0
1 0.75 0
1 0.8125 0
1 0.875 0
1 0.9375 0
0.9375 1 0
0.875 1 0
0.8125 1 0
0.75 1 0
0.6875 1 0
0.625 1 0
0.5625 1 0
0.5 1 0
0.4375 1 0
0.375 1 0
0.3125 1 0
0.25 1 0
0.1875 1 0
0.125 1 0
0.0625 1 0
0 1 0
-0.0625 1 0
-0.125 1 0
-0.1875 1 0
-0.25 1 0
-0.3125 1 0
-0.375 1 0
-0.4375 1 0
-0.5 1 0
-0.5625 1 0
-0.625 1 0
-0.6875 1 0
-0.75 1 0
-0.8125 1 0
-0.875 1 0
-0.9375 1 0
-1 0.9375 0
-1 0.875 0
-1 0.8125 0
-1 0.75 0
-1 0.6875 0
-1 0.625 0
-1 0.5625 0
-1 0.5 0
-1 0.4375 0
-1 0.375 0
-1 0.3125 0
-1 0.25 0
-1 0.1875 0
-1 0.125 0
-1 0.0625 0
-1 0 0
-1 -0.0625 0
-1 -0.125 0
-1 -0.1875 0
-1 -0.25 0
-1 -0.3125 0
-1 -0.375 0
-1 -0.4375 0
-1 -0.5 0
-1 -0.5625 0
-1 -0.625 0
-1 -0.6875 0
-1 -0.75 0
-1 -0.8125 0
-1 -0.875 0
-1 -0.9375 0
-0.9375 -0.9375 0
-0.9375 -0.875 0
-0.9375 -0.8125 0
-0.9375 -0.75 0
-0.9375 -0.6875 0
-0.9375 -0.625 0
-0.9375 -0.5625 0
-0.9375 -0.5 0
-0.9375 -0.4375 0
-0.9375 -0.375 0
-0.9375 -0.3125 0
-0.9375 -0.25 0
-0.9375 -0.1875 0
-0.9375 -0.125 0
-0.9375 -0.0625 0
-0.9375 0 0
-0.9375 0.0625 0
-0.9375 0.125 0
-0.9375 0.1875 0
-0.9375 0.25 0
-0.9375 0.3125 0
-0.9375 0.375 0
-0.9375 0.4375 0
-0.9375 0.5 0
-0.9375 0.5625 0
-0.9375 0.625 0
-0.9375 0.6875 0
-0.9375 0.75 0
-0.9375 0.8125 0
-0.9375 0.875 0
-0.9375 0.9375 0
-0.875 -0.9375 0
-0.875 -0.875 0
-0.875 -0.8125 0
-0.875 -0.75 0
-0.875 -0.6875 0
-0.875 -0.625 0
-0.875 -0.5625 0
-0.875 -0.5 0
-0.875 -0.4375 0
-0.875 -0.375 0
-0.875 -0.3125 0
-0.875 -0.25 0
-0.875 -0.1875 0
-0.875 -0.125 0
-0.875 -0.0625 0
-0.875 0 0
-0.875 0.0625 0
-0.875 0.125 0
-0.875 0.1875 0
-0.875 0.25 0
-0.875 0.3125 0
-0.875 0.375 0
-0.875 0.4375 0
-0.875 0.5 0
-0.875 0.5625 0
-0.875 0.625 0
-0.875 0.6875 0
-0.875 0.75 0
-0.875 0.8125 0
-0.875 0.875 0
-0.875 0.9375 0
-0.8125 -0.9375 0
-0.8125 -0.875 0
-0.8125 -0.8125 0
-0.8125 -0.75 0
-0.8125 -0.6875 0
-0.8125 -0.625 0
-0.8125 -0.5625 0
-0.8125 -0.5 0
-0.8125 -0.4375 0
-0.8125 -0.375 0
-0.8125 -0.3125 0
-0.8125 -0.25 0
-0.8125 -0.1875 0
-0.8125 -0.125 0
-0.8125 -0.0625 0
-0.8125 0 0
-0.8125 0.0625 0
-0.8125 0.125 0
-0.8125 0.1875 0
-0.8125 0.25 0
-0.8125 0.3125 0
-0.8125 0.375 0
-0.8125 0.4375 0
-0.8125 0.5 0
-0.8125 0.5625 0
-0.8125 0.625 0
-0.8125 0.6875 0
-0.8125 0.75 0
-0.8125 0.8125 0
-0.8125 0.875 0
-0.8125 0.9375 0
-0.75 -0.9375 0
-0.75 -0.875 0
-0.75 -0.8125 0
-0.75 -0.75 0
-0.75 -0.6875 0
-0.75 -0.625 0
-0.75 -0.5625 0
-0.75 -0.5 0
-0.75 -0.4375 0
-0.75 -0.375 0
-0.75 -0.3125 0
-0.75 -0.25 0
-0.75 -0.1875 0
-0.75 -0.125 0
-0.75 -0.0625 0
-0.75 0 0
-0.75 0.0625 0
-0.75 0.125 0
-0.75 0.1875 0
-0.75 0.25 0
-0.75 0.3125 0
-0.75 0.375 0
-0.75 0.4375 0
-0.75 0.5 0
-0.75 0.5625 0
-0.75 0.625 0
-0.75 0.6875 0
-0.75 0.75 0
-0.75 0.8125 0
-0.75 0.875 0
-0.75 0.9375 0
-0.6875 -0.9375 0
-0.6875 -0.875 0
-0.6875 -0.8125 0
-0.6875 -0.75 0
-0.6875 -0.6875 0
-0.6875 -0.625 0
-0.6875 -0.5625 0
-0.6875 -0.5 0
-0.6875 -0.4375 0
-0.6875 -0.375 0
-0.6875 -0.3125 0
-0.6875 -0.25 0
-0.6875 -0.1875 0
-0.6875 -0.125 0
-0.6875 -0.0625 0
-0.6875 0 0
-0.6875 0.0625 0
-0.6875 0.125 0
-0.6875 0.1875 0
-0.6875 0.25 0
-0.6875 0.3125 0
-0.6875 0.375 0
-0.6875 0.4375 0
-0.6875 0.5 0
-0.6875 0.5625 0
-0.6875 0.625 0
-0.6875 0.6875 0
-0.6875 0.75 0
-0.6875 0.8125 0
-0.6875 0.875 0
-0.6875 0.9375 0
-0.625 -0.9375 0
-0.625 -0.875 0
-0.625 -0.8125 0
-0.625 -0.75 0
-0.625 -0.6875 0
-0.625 -0.625 0
-0.625 -0.5625 0
-0.625 -0.5 0
-0.625 -0.4375 0
-0.625 -0.375 0
-0.625 -0.3125 0
-0.625 -0.25 0
-0.625 -0.1875 0
-0.625 -0.125 0
-0.625 -0.0625 0
-0.625 0 0
-0.625 0.0625 0
-0.625 0.125 0
-0.625 0.1875 0
-0.625 0.25 0
-0.625 0.3125 0
-0.625 0.375 0
-0.625 0.4375 0
-0.625 0.5 0
-0.625 0.5625 0
-0.625 0.625 0
-0.625 0.6875 0
-0.625 0.75 0
-0.625 0.8125 0
-0.625 0.875 0
-0.625 0.9375 0
-0.5625 -0.9375 0
-0.5625 -0.875 0
-0.5625 -0.8125 0
-0.5625 -0.75 0
-0.5625 -0.6875 0
-0.5625 -0.625 0
-0.5625 -0.5625 0
-0.5625 -0.5 0
-0.5625 -0.4375 0
-0.5625 -0.375 0
-0.5625 -0.3125 0
-0.5625 -0.25 0
-0.5625 -0.1875 0
-0.5625 -0.125 0
-0.5625 -0.0625 0
-0.5625 0 0
-0.5625 0.0625 0
-0.5625 0.125 0
-0.5625 0.1875 0
-0.5625 0.25 0
-0.5625 0.3125 0
-0.5625 0.375 0
-0.5625 0.4375 0
-0.5625 0.5 0
-0.5625 0.5625 0
-0.5625 0.625 0
-0.5625 0.6875 0
-0.5625 0.75 0
-0.5625 0.8125 0
-0.5625 0.875 0
-0.5625 0.9375 0
-0.5 -0.9375 0
-0.5 -0.875 0
-0.5 -0.8125 0
-0.5 -0.75 0
-0.5 -0.6875 0
-0.5 -0.625 0
-0.5 -0.5625 0
-0.5 -0.5 0
-0.5 -0.4375 0
-0.5 -0.375 0
-0.5 -0.3125 0
-0.5 -0.25 0
-0.5 -0.1875 0
-0.5 -0.125 0
-0.5 -0.0625 0
-0.5 0 0
-0.5 0.0625 0
-0.5 0.125 0
-0.5 0.1875 0
-0.5 0.25 0
-0.5 0.3125 0
-0.5 0.375 0
-0.5 0.4375 0
-0.5 0.5 0
-0.5 0.5625 0
-0.5 0.625 0
-0.5 0.6875 0
-0.5 0.75 0
-0.5 0.8125 0
-0.5 0.875 0
-0.5 0.9375 0
-0.4375 -0.9375 0
-0.4375 -0.875 0
-0.4375 -0.8125 0
-0.4375 -0.75 0
-0.4375 -0.6875 0
-0.4375 -0.625 0
-0.4375 -0.5625 0
-0.4375 -0.5 0
-0.4375 -0.4375 0
-0.4375 -0.375 0
-0.4375 -0.3125 0
-0.4375 -0.25 0
-0.4375 -0.1875 0
-0.4375 -0.125 0
-0.4375 -0.0625 0
-0.4375 0 0
-0.4375 0.0625 0
-0.4375 0.125 0
-0.4375 0.1875 0
-0.4375 0.25 0
-0.4375 0.3125 0
-0.4375 0.375 0
-0.4375 0.4375 0
-0.4375 0.5 0
-0.4375 0.5625 0
-0.4375 0.625 0
-0.4375 0.6875 0
-0.4375 0.75 0
-0.4375 0.8125 0
-0.4375 0.875 0
-0.4375 0.9375 0
-0.375 -0.9375 0
-0.375 -0.875 0
-0.375 -0.8125 0
-0.375 -0.75 0
-0.375 -0.6875 0
-0.375 -0.625 0
-0.375 -0.5625 0
-0.375 -0.5 0
-0.375 -0.4375 0
-0.375 -0.375 0
-0.375 -0.3125 0
-0.375 -0.25 0
-0.375 -0.1875 0
-0.375 -0.125 0
-0.375 -0.0625 0
-0.375 0 0
-0.375 0.0625 0
-0.375 0.125 0
-0.375 0.1875 0
-0.375 0.25 0
-0.375 0.3125 0
-0.375 0.375 0
-0.375 0.4375 0
-0.375 0.5 0
-0.375 0.5625 0
-0.375 0.625 0
-0.375 0.6875 0
-0.375 0.75 0
-0.375 0.8125 0
-0.375 0.875 0
-0.375 0.9375 0
-0.3125 -0.9375 0
-0.3125 -0.875 0
-0.3125 -0.8125 0
-0.3125 -0.75 0
-0.3125 -0.6875 0
-0.3125 -0.625 0
-0.3125 -0.5625 0
-0.3125 -0.5 0
-0.3125 -0.4375 0
-0.3125 -0.375 0
-0.3125 -0.3125 0
-0.3125 -0.25 0
-0.3125 -0.1875 0
-0.3125 -0.125 0
-0.3125 -0.0625 0
-0.3125 0 0
-0.3125 0.0625 0
-0.3125 0.125 0
-0.3125 0.1875 0
-0.3125 0.25 0
-0.3125 0.3125 0
-0.3125 0.375 0
-0.3125 0.4375 0
-0.3125 0.5 0
-0.3125 0.5625 0
-0.3125 0.625 0
-0.3125 0.6875 0
-0.3125 0.75 0
-0.3125 0.8125 0
-0.3125 0.875 0
-0.3125 0.9375 0
-0.25 -0.9375 0
-0.25 -0.875 0
-0.25 -0.8125 0
-0.25 -0.75 0
-0.25 -0.6875 0
-0.25 -0.625 0
-0.25 -0.5625 0
-0.25 -0.5 0
-0.25 -0.4375 0
-0.25 -0.375 0
-0.25 -0.3125 0
-0.25 -0.25 0
-0.25 -0.1875 0
-0.25 -0.125 0
-0.25 -0.0625 0
-0.25 0 0
-0.25 0.0625 0
-0.25 0.125 0
-0.25 0.1875 0
-0.25 0.25 0
-0.25 0.3125 0
-0.25 0.375 0
-0.25 0.4375 0
-0.25 0.5 0
-0.25 0.5625 0
-0.25 0.625 0
-0.25 0.6875 0
-0.25 0.75 0
-0.25 0.8125 0
-0.25 0.875 0
-0.25 0.9375 0
-0.1875 -0.9375 0
-0.1875 -0.875 0
-0.1875 -0.8125 0
-0.1875 -0.75 0
-0.1875 -0.6875 0
-0.1875 -0.625 0
-0.1875 -0.5625 0
-0.1875 -0.5 0
-0.1875 -0.4375 0
-0.1875 -0.375 0
-0.1875 -0.3125 0
-0.1875 -0.25 0
-0.1875 -0.1875 0
-0.1875 -0.125 0
-0.1875 -0.0625 0
-0.1875 0 0
-0.1875 0.0625 0
-0.1875 0.125 0
-0.1875 0.1875 0
-0.1875 0.25 0
-0.1875 0.3125 0
-0.1875 0.375 0
-0.1875 0.4375 0
-0.1875 0.5 0
-0.1875 0.5625 0
-0.1875 0.625 0
-0.1875 0.6875 0
-0.1875 0.75 0
-0.1875 0.8125 0
-0.1875 0.875 0
-0.1875 0.9375 0
-0.125 -0.9375 0
-0.125 -0.875 0
-0.125 -0.8125 0
-0.125 -0.75 0
-0.125 -0.6875 0
-0.125 -0.625 0
-0.125 -0.5625 0
-0.125 -0.5 0
-0.125 -0.4375 0
-0.125 -0.375 0
-0.125 -0.3125 0
-0.125 -0.25 0
-0.125 -0.1875 0
-0.125 -0.125 0
-0.125 -0.0625 0
-0.125 0 0
-0.125 0.0625 0
-0.125 0.125 0
-0.125 0.1875 0
-0.125 0.25 0
-0.125 0.3125 0
-0.125 0.375 0
-0.125 0.4375 0
-0.125 0.5 0
-0.125 0.5625 0
-0.125 0.625 0
-0.125 0.6875 0
-0.125 0.75 0
-0.125 0.8125 0
-0.125 0.875 0
-0.125 0.9375 0
-0.0625 -0.9375 0
-0.0625 -0.875 0
-0.0625 -0.8125 0
-0.0625 -0.75 0
-0.0625 -0.6875 0
-0.0625 -0.625 0
-0.0625 -0.5625 0
-0.0625 -0.5 0
-0.0625 -0.4375 0
-0.0625 -0.375 0
-0.0625 -0.3125 0
-0.0625 -0.25 0
-0.0625 -0.1875 0
-0.0625 -0.125 0
-0.0625 -0.0625 0
-0.0625 0 0
-0.0625 0.0625 0
-0.0625 0.125 0
-0.0625 0.1875 0
-0.0625 0.25 0
-0.0625 0.3125 0
-0.0625 0.375 0
-0.0625 0.4375 0
-0.0625 0.5 0
-0.0625 0.5625 0
-0.0625 0.625 0
-0.0625 0.6875 0
-0.0625 0.75 0
-0.0625 0.8125 0
-0.0625 0.875 0
-0.0625 0.9375 0
0 -0.9375 0
0 -0.875 0
0 -0.8125 0
0 -0.75 0
0 -0.6875 0
0 -0.625 0
0 -0.5625 0
0 -0.5 0
0 -0.4375 0
0 -0.375 0
0 -0.3125 0
0 -0.25 0
0 -0.1875 0
0 -0.125 0
0 -0.0625 0
0 0 0
0 0.0625 0
0 0.125 0
0 0.1875 0
0 0.25 0
0 0.3125 0
0 0.375 0
0 0.4375 0
0 0.5 0
0 0.5625 0
0 0.625 0
0 0.6875 0
0 0.75 0
0 0.8125 0
0 0.875 0
0 0.9375 0
0.0625 -0.9375 0
0.0625 -0.875 0
0.0625 -0.8125 0
0.0625 -0.75 0
0.0625 -0.6875 0
0.0625 -0.625 0
0.0625 -0.5625 0
0.0625 -0.5 0
0.0625 -0.4375 0
0.0625 -0.375 0
0.0625 -0.3125 0
0.0625 -0.25 0
0.0625 -0.1875 0
0.0625 -0.125 0
0.0625 -0.0625 0
0.0625 0 0
0.0625 0.0625 0
0.0625 0.125 0
0.0625 0.1875 0
0.0625 0.25 0
0.0625 0.3125 0
0.0625 0.375 0
0.0625 0.4375 0
0.0625 0.5 0
0.0625 0.5625 0
0.0625 0.625 0
0.0625 0.6875 0
0.0625 0.75 0
0.0625 0.8125 0
0.0625 0.875 0
0.0625 0.9375 0
0.125 -0.9375 0
0.125 -0.875 0
0.125 -0.8125 0
0.125 -0.75 0
0.125 -0.6875 0
0.125 -0.625 0
0.125 -0.5625 0
0.125 -0.5 0
0.125 -0.4375 0
0.125 -0.375 0
0.125 -0.3125 0
0.125 -0.25 0
0.125 -0.1875 0
0.125 -0.125 0
0.125 -0.0625 0
0.125 0 0
0.125 0.0625 0
0.125 0.125 0
0.125 0.1875 0
0.125 0.25 0
[...]
POINT_DATA 1089
SCALARS phi double
LOOKUP_TABLE default
-1
1
-1
1
-0.952768
-0.904414
-0.8543
-0.802019
-0.747312
-0.690041
-0.630161
-0.567712
-0.502805
-0.435614
-0.366366
-0.295334
-0.222829
-0.149193
-0.0747899
1.3592e-07
0.0747902
0.149193
0.222829
0.295334
0.366366
0.435615
0.502806
0.567712
0.630161
0.690041
0.747312
0.802019
0.8543
0.904414
0.952768
0.9375
0.875
0.8125
0.75
0.6875
0.625
0.5625
0.5
0.4375
0.375
0.3125
0.25
0.1875
0.125
0.0625
0
-0.0625
-0.125
-0.1875
-0.25
-0.3125
-0.375
-0.4375
-0.5
-0.5625
-0.625
-0.6875
-0.75
-0.8125
-0.875
-0.9375
-0.831847
-0.720782
-0.629223
-0.550848
-0.482005
-0.42053
-0.364939
-0.314137
-0.267263
-0.223613
-0.182587
-0.143662
-0.106364
-0.0702593
-0.0349361
-2.71528e-09
0.034936
0.0702592
0.106364
0.143662
0.182587
0.223613
0.267263
0.314137
0.364939
0.42053
0.482005
0.550848
0.629223
0.720782
0.831847
0.9375
0.875
0.8125
0.75
0.6875
0.625
0.5625
0.5
0.4375
0.375
0.3125
0.25
0.1875
0.125
0.0625
0
-0.0625
-0.125
-0.1875
-0.25
-0.3125
-0.375
-0.4375
-0.5
-0.5625
-0.625
-0.6875
-0.75
-0.8125
-0.875
-0.9375
-0.891039
-0.830083
-0.769653
-0.709611
-0.649871
-0.590367
-0.531055
-0.471898
-0.412873
-0.353958
-0.29514
-0.236409
-0.17776
-0.119189
-0.0606997
-0.00229531
0.0560151
0.114219
0.172296
0.230223
0.287965
0.345477
0.402696
0.459537
0.515878
0.571543
0.62626
0.679585
0.730732
0.778095
0.817781
-0.84388
-0.784667
-0.726429
-0.66893
-0.612009
-0.555547
-0.499456
-0.443669
-0.388136
-0.33282
-0.277694
-0.222738
-0.167941
-0.1133
-0.0588155
-0.00449813
0.0496356
0.10356
0.157241
0.210627
0.263656
0.316239
0.368259
0.419556
0.469905
0.518985
0.566316
0.611148
0.652227
0.687302
0.711718
-0.795455
-0.738313
-0.682486
-0.627686
-0.573699
-0.520363
-0.467558
-0.415189
-0.363186
-0.311496
-0.260079
-0.208909
-0.15797
-0.107255
-0.0567669
-0.00652022
0.0434617
0.0931429
0.142473
0.191383
0.239782
0.28755
0.334526
0.380492
0.425153
0.468095
0.508729
0.546183
0.579149
0.605622
0.623094
-0.745368
-0.690676
-0.63754
-0.585646
-0.534748
-0.484658
-0.43523
-0.386349
-0.337928
-0.289902
-0.242221
-0.194853
-0.147777
-0.100985
-0.0544811
-0.00828159
0.0375839
0.0830708
0.128117
0.17264
0.216528
0.259637
0.301777
0.342697
0.382064
0.419429
0.454182
0.48549
0.512228
0.53299
0.546266
-0.693357
-0.641512
-0.591377
-0.542627
-0.495004
-0.448304
-0.402363
-0.357055
-0.312282
-0.267967
-0.224056
-0.18051
-0.137305
-0.0944316
-0.0518952
-0.00971385
0.0320788
0.0734325
0.114277
0.154519
0.194037
0.232672
0.270221
0.306419
0.340926
0.373303
0.402983
0.429246
0.451219
0.467924
0.47842
-0.639266
-0.590665
-0.543849
-0.498498
-0.454352
-0.4112
-0.368872
-0.327235
-0.286183
-0.245635
-0.205531
-0.165829
-0.126504
-0.0875461
-0.0489591
-0.010763
0.0270064
0.0642954
0.10103
0.137112
0.172414
0.206775
0.23999
0.271798
0.301877
0.329822
0.355141
0.377247
0.395477
0.409149
0.417645
-0.583028
-0.538054
-0.494875
-0.453182
-0.412721
-0.373283
-0.334701
-0.296838
-0.259586
-0.222864
-0.186608
-0.150777
-0.115342
-0.0802945
-0.0456374
-0.0113911
0.0224078
0.055705
0.0884258
0.120472
0.151719
0.182008
0.211143
0.238882
0.26493
0.288935
0.310483
0.329109
0.344314
0.355612
0.362582
-0.524651
-0.48367
-0.444432
-0.406648
-0.370078
-0.334523
-0.29982
-0.265836
-0.232468
-0.199632
-0.167268
-0.135333
-0.103799
-0.0726571
-0.0419101
-0.0115778
0.0183043
0.0476833
0.0764871
0.104622
0.131968
0.158379
0.183674
0.207635
0.230005
0.250485
0.268736
0.284393
0.297081
0.306447
0.312197
-0.464211
-0.427562
-0.392551
-0.358915
-0.326433
-0.294922
-0.264228
-0.234228
-0.204823
-0.175934
-0.147504
-0.119491
-0.0918701
-0.0646295
-0.0377734
-0.0113199
0.0146976
0.0402297
0.0652093
0.0895498
0.113142
0.135854
0.157525
0.177966
0.196958
0.214253
0.229579
0.242652
0.253189
0.260931
0.265668
-0.401843
-0.369832
-0.339307
-0.310039
-0.281829
-0.254512
-0.22795
-0.202032
-0.176667
-0.151784
-0.127329
-0.103264
-0.0795648
-0.0562223
-0.033239
-0.0106315
0.0115704
0.033322
0.0545634
0.0752174
0.0951884
0.114361
0.132596
0.149736
0.165599
0.179983
0.192675
0.203454
0.212108
0.218444
0.222312
-0.337731
-0.310626
-0.28482
-0.260115
-0.23634
-0.213354
-0.191036
-0.16929
-0.148035
-0.127211
-0.106768
-0.086674
-0.0669078
-0.0474601
-0.0283335
-0.0095421
0.00888816
0.0269189
0.0444985
0.0615612
0.0780259
0.0937954
0.108756
0.122777
0.135713
0.147405
0.157686
0.16639
0.173356
0.178445
0.181545
-0.2721
-0.250132
-0.229243
-0.209269
-0.190072
-0.171534
-0.153558
-0.136061
-0.118979
-0.102259
-0.0858627
-0.0697607
-0.053936
-0.0383806
-0.0230967
-0.00809571
0.00660109
0.0209622
0.0349455
0.0484975
0.0615528
0.0740336
0.0858497
0.0968988
0.107068
0.116236
0.124278
0.131069
0.136493
0.140447
0.142854
-0.205212
-0.188569
-0.172757
-0.157653
-0.143151
-0.12916
-0.115604
-0.102423
-0.0895645
-0.0769891
-0.064666
-0.0525735
-0.0406978
-0.029033
-0.0175802
-0.00634845
0.00464617
0.0153796
0.0258199
0.0359264
0.04565
0.0549325
0.0637067
0.0718975
0.0794223
0.0861939
0.0921225
0.0971204
0.101106
0.104008
0.105772
-0.137356
-0.126181
-0.11557
-0.105442
-0.0957228
-0.0863529
-0.0772811
-0.0684649
-0.05987
-0.0514692
-0.0432414
-0.035172
-0.0272514
-0.0194756
-0.0118453
-0.00436658
0.00294974
0.0100875
0.017025
0.0237353
0.0301855
0.0363367
0.0421448
0.0475602
0.0525292
0.056995
0.0609001
0.0641881
0.0668072
0.0687129
0.0698708
-0.0688439
-0.0632321
-0.057906
-0.0528237
-0.047949
-0.0432512
-0.0387047
-0.034288
-0.0299837
-0.025778
-0.0216604
-0.0176233
-0.013662
-0.00977433
-0.00596069
-0.00222405
0.00143006
0.00499352
0.00845552
0.0118024
0.0150178
0.0180824
0.0209741
0.0236684
0.0261388
0.0283574
0.030296
0.0319271
0.0332257
0.03417
0.0347436
1.3258e-07
1.3949e-07
1.59382e-07
1.76114e-07
1.94852e-07
2.09715e-07
2.21119e-07
2.21804e-07
1.93442e-07
1.88652e-07
1.61927e-07
1.46939e-07
1.33077e-07
1.19035e-07
1.10405e-07
1.03606e-07
1.00682e-07
9.5758e-08
8.3939e-08
6.47088e-08
5.24356e-08
3.95793e-08
3.7375e-08
3.68022e-08
3.39275e-08
2.50814e-08
-2.36719e-09
-1.63725e-08
-1.54996e-08
2.34198e-09
1.01481e-08
0.0688442
0.0632325
0.0579064
0.052824
0.0479493
0.0432516
0.0387051
0.0342884
0.0299841
0.0257784
0.0216607
0.0176237
0.0136623
0.0097746
0.00596095
0.00222429
-0.00142983
-0.00499331
-0.00845533
-0.0118023
-0.0150177
-0.0180823
-0.020974
-0.0236683
-0.0261387
-0.0283574
-0.030296
-0.0319272
-0.0332257
-0.0341701
-0.0347437
0.137356
0.126181
0.115571
0.105442
0.0957231
0.0863533
0.0772814
0.0684653
0.0598704
0.0514695
0.0432417
0.0351723
0.0272518
0.0194759
0.0118457
0.00436688
-0.00294947
-0.0100872
-0.0170248
-0.0237352
-0.0301853
-0.0363366
-0.0421447
-0.0475602
-0.0525291
-0.056995
-0.0609001
-0.0641881
-0.0668073
-0.068713
-0.0698709
0.205212
0.188569
0.172758
0.157654
0.143151
0.12916
0.115605
0.102423
0.0895648
0.0769893
0.0646663
0.0525738
0.0406982
0.0290333
0.0175806
0.00634875
-0.00464591
-0.0153794
-0.0258197
-0.0359263
-0.0456499
-0.0549324
-0.0637066
-0.0718974
-0.0794222
-0.0861938
-0.0921225
-0.0971204
-0.101106
-0.104008
-0.105772
0.2721
0.250132
0.229243
0.209269
0.190072
0.171535
0.153558
0.136062
0.118979
0.10226
0.0858629
0.069761
0.0539362
0.0383809
0.023097
0.00809597
-0.00660087
-0.020962
-0.0349454
-0.0484974
-0.0615527
-0.0740335
-0.0858496
-0.0968987
-0.107068
-0.116236
-0.124278
-0.131069
-0.136493
-0.140447
-0.142854
0.337731
0.310626
0.28482
0.260115
0.236341
0.213354
0.191037
0.16929
0.148036
0.127211
0.106768
0.0866743
0.066908
0.0474603
0.0283337
0.00954233
-0.00888794
-0.0269187
-0.0444983
-0.061561
-0.0780257
-0.0937953
-0.108756
-0.122777
-0.135713
-0.147405
-0.157686
-0.16639
-0.173356
-0.178445
-0.181545
0.401844
0.369832
0.339308
0.310039
0.281829
0.254512
0.22795
0.202032
0.176667
0.151784
0.127329
0.103264
0.0795651
0.0562225
0.0332392
0.0106317
-0.0115701
-0.0333218
-0.0545632
-0.0752172
-0.0951883
-0.11436
-0.132596
-0.149736
-0.165599
-0.179983
-0.192675
-0.203454
-0.212108
-0.218444
-0.222312
0.464211
0.427562
0.392551
0.358915
0.326433
0.294922
0.264228
0.234228
0.204823
0.175934
0.147504
0.119492
0.0918703
0.0646297
0.0377735
0.0113201
-0.0146974
-0.0402295
-0.0652091
-0.0895496
-0.113142
-0.135854
-0.157525
-0.177966
-0.196958
-0.214253
-0.229579
-0.242652
-0.253189
-0.260931
-0.265668
0.524651
0.483671
0.444432
0.406648
0.370079
0.334523
0.29982
0.265836
0.232468
0.199632
0.167268
0.135333
0.103799
0.0726572
0.0419102
0.0115779
-0.0183042
-0.0476831
-0.0764869
-0.104622
-0.131968
-0.158379
-0.183674
-0.207635
-0.230005
-0.250485
-0.268736
-0.284393
-0.297081
-0.306447
-0.312197
0.583028
0.538054
0.494875
0.453182
0.412721
0.373284
0.334701
0.296838
0.259586
0.222864
0.186609
0.150777
0.115343
0.0802946
0.0456374
0.0113912
-0.0224077
-0.0557049
-0.0884257
-0.120472
-0.151719
-0.182008
-0.211143
-0.238882
-0.26493
-0.288935
-0.310483
-0.329109
-0.344314
-0.355612
-0.362582
0.639266
0.590665
0.543849
0.498498
0.454352
0.4112
0.368872
0.327235
0.286183
0.245635
0.205531
0.165829
0.126504
0.0875462
0.0489591
0.010763
-0.0270064
-0.0642954
-0.10103
-0.137112
-0.172414
-0.206775
-0.23999
-0.271798
-0.301877
-0.329822
-0.355141
-0.377247
-0.395477
-0.409149
-0.417645
0.693357
0.641512
0.591377
0.542627
0.495004
0.448304
0.402363
0.357055
0.312282
0.267967
0.224056
0.18051
0.137305
0.0944316
0.0518952
0.00971388
-0.0320788
-0.0734324
-0.114277
-0.154519
-0.194037
-0.232672
-0.270221
-0.306419
-0.340926
-0.373303
-0.402983
-0.429246
-0.451219
-0.467924
-0.47842
0.745368
0.690676
0.63754
0.585646
0.534748
0.484658
0.43523
0.386349
0.337928
0.289902
0.242222
0.194853
0.147777
0.100985
0.0544812
0.00828164
-0.0375838
-0.0830708
-0.128117
-0.17264
-0.216528
-0.259637
-0.301777
-0.342697
-0.382064
-0.419429
-0.454182
-0.48549
-0.512228
-0.53299
-0.546266
0.795455
0.738312
0.682486
0.627686
0.573699
0.520363
0.467558
0.415189
0.363186
0.311496
0.260079
0.208909
0.15797
0.107255
0.056767
0.00652032
-0.0434616
-0.0931428
-0.142473
-0.191383
-0.239782
-0.28755
-0.334526
-0.380492
-0.425153
-0.468095
-0.508729
-0.546183
-0.579149
-0.605622
-0.623094
0.84388
0.784667
0.726429
0.66893
0.612009
0.555547
0.499456
0.443669
0.388136
0.33282
0.277694
0.222738
0.167941
0.1133
0.0588155
0.00449823
-0.0496355
-0.10356
-0.15724
-0.210627
-0.263656
-0.316239
-0.368259
-0.419556
-0.469905
-0.518985
-0.566316
-0.611148
-0.652227
-0.687302
-0.711718
0.891039
0.830083
0.769653
0.709611
0.649871
0.590367
0.531055
0.471898
0.412873
0.353958
0.29514
0.236409
0.17776
0.119189
0.0606998
0.00229538
-0.0560151
-0.114218
-0.172296
-0.230223
-0.287965
-0.345477
-0.402696
-0.459537
-0.515878
-0.571543
-0.62626
-0.679585
-0.730732
-0.778095
-0.817781
VECTORS dphidx_dphidy_0 double
0.755707 1 0
0.755706 -1 0
-2.69044 -1 0
-2.69044 1 0
0.764685 0.987668 0
0.787744 0.968551 0
0.819166 0.941532 0
0.855905 0.90641 0
0.895823 0.863278 0
0.93721 0.812392 0
0.978629 0.754135 0
1.01884 0.688986 0
1.05678 0.617507 0
1.09151 0.540333 0
1.12224 0.458162 0
1.1483 0.371744 0
1.16913 0.281876 0
1.18431 0.189387 0
1.19354 0.095136 0
1.19664 -5.34424e-08 0
1.19354 -0.0951361 0
1.18431 -0.189387 0
1.16913 -0.281876 0
1.1483 -0.371745 0
1.12224 -0.458163 0
1.09151 -0.540333 0
1.05678 -0.617507 0
1.01884 -0.688986 0
0.978628 -0.754135 0
0.937209 -0.812392 0
0.895823 -0.863278 0
0.855905 -0.90641 0
0.819167 -0.941531 0
0.787745 -0.968551 0
0.764685 -0.987668 0
0.743374 -1 0
0.718666 -1 0
0.685559 -1 0
0.646217 -1 0
0.60207 -1 0
0.554125 -1 0
0.503126 -1 0
0.449624 -1 0
0.394038 -1 0
0.336676 -1 0
0.277764 -1 0
0.217457 -1 0
0.155847 -1 0
0.0929691 -1 0
0.0288037 -1 0
-0.036726 -1 0
-0.103759 -1 0
-0.172505 -1 0
-0.24326 -1 0
-0.316429 -1 0
-0.392556 -1 0
-0.47237 -1 0
-0.556865 -1 0
-0.647412 -1 0
-0.745949 -1 0
-0.855313 -1 0
-0.979847 -1 0
-1.12664 -1 0
-1.30829 -1 0
-1.55048 -1 0
-1.91551 -1 0
-2.23374 -0.22507 0
-1.62099 -0.14502 0
-1.35947 -0.0980692 0
-1.17775 -0.0733218 0
-1.04255 -0.0573638 0
-0.936524 -0.0461544 0
-0.851141 -0.0377186 0
-0.781411 -0.0310367 0
-0.724196 -0.0255216 0
-0.677407 -0.0208103 0
-0.639606 -0.0166671 0
-0.609782 -0.0129274 0
-0.587221 -0.00947348 0
-0.571427 -0.00621458 0
-0.562074 -0.00307807 0
-0.558976 -2.05815e-07 0
-0.562074 0.00307812 0
-0.571427 0.00621502 0
-0.587221 0.00947369 0
-0.609782 0.0129269 0
-0.639606 0.0166663 0
-0.677407 0.0208101 0
-0.724196 0.0255217 0
-0.781412 0.0310372 0
-0.851141 0.0377192 0
-0.936524 0.0461544 0
-1.04255 0.0573638 0
-1.17775 0.0733215 0
-1.35947 0.0980695 0
-1.62099 0.14502 0
-2.23374 0.22507 0
-1.91551 1 0
-1.55048 1 0
-1.30829 1 0
-1.12664 1 0
-0.979847 1 0
-0.855314 1 0
-0.74595 1 0
-0.647412 1 0
-0.556865 1 0
-0.472369 1 0
-0.392555 1 0
-0.316429 1 0
-0.24326 1 0
-0.172504 1 0
-0.103758 1 0
-0.036725 1 0
0.0288042 1 0
0.0929692 1 0
0.155847 1 0
0.217457 1 0
0.277764 1 0
0.336676 1 0
0.394038 1 0
0.449625 1 0
0.503126 1 0
0.554126 1 0
0.60207 1 0
0.646218 1 0
0.685559 1 0
0.718666 1 0
0.743374 1 0
0.74896 0.98148 0
0.722664 0.971092 0
0.688571 0.963776 0
0.648558 0.958256 0
0.603926 0.953954 0
0.555624 0.950528 0
0.504355 0.947749 0
0.45065 0.945456 0
0.394912 0.943526 0
0.33744 0.941863 0
0.278452 0.94039 0
0.218099 0.939041 0
0.156472 0.937756 0
0.0936035 0.936479 0
0.0294762 0.935153 0
-0.035985 0.933719 0
-0.102915 0.932111 0
-0.171517 0.930249 0
-0.242076 0.928037 0
-0.314981 0.925352 0
-0.390752 0.92203 0
-0.470088 0.917845 0
-0.553927 0.912479 0
-0.643554 0.905457 0
-0.740761 0.896049 0
-0.848122 0.883051 0
-0.969472 0.864339 0
-1.11082 0.83578 0
-1.28218 0.788078 0
-1.50158 0.696388 0
-1.80625 0.43002 0
0.764676 0.957979 0
0.734167 0.939611 0
0.697335 0.925894 0
0.655405 0.915355 0
0.609377 0.907066 0
0.560033 0.900429 0
0.507977 0.895027 0
0.453677 0.890557 0
0.397493 0.886789 0
0.339696 0.88354 0
0.280485 0.88066 0
0.219999 0.87802 0
0.158319 0.875504 0
0.0954794 0.873005 0
0.0314624 0.870411 0
-0.0337993 0.867609 0
-0.100427 0.864468 0
-0.168605 0.860839 0
-0.238588 0.856536 0
-0.310722 0.851323 0
-0.385463 0.844893 0
-0.463412 0.836825 0
-0.545361 0.826534 0
-0.632357 0.813166 0
-0.725801 0.795433 0
-0.82758 0.771289 0
-0.940248 0.737302 0
-1.06721 0.687288 0
-1.21267 0.609237 0
-1.37979 0.47593 0
-1.55749 0.267839 0
0.788096 0.927903 0
0.751929 0.903751 0
0.711108 0.885013 0
0.666277 0.870298 0
0.618088 0.858582 0
0.567109 0.849128 0
0.513807 0.841394 0
0.45856 0.834972 0
0.401663 0.829545 0
0.343345 0.824855 0
0.283776 0.820693 0
0.223074 0.816875 0
0.161311 0.813237 0
0.098516 0.809622 0
0.0346751 0.805874 0
-0.0302677 0.801829 0
-0.096414 0.797305 0
-0.163917 0.792088 0
-0.232986 0.78592 0
-0.303903 0.778478 0
-0.377027 0.76934 0
-0.452819 0.757948 0
-0.531859 0.743534 0
-0.614868 0.725017 0
-0.702723 0.700826 0
-0.796442 0.668605 0
-0.897069 0.624704 0
-1.00526 0.563361 0
-1.11999 0.475506 0
-1.2345 0.351562 0
-1.32362 0.188813 0
0.816778 0.890742 0
0.774403 0.862623 0
0.728874 0.840241 0
0.680473 0.822335 0
0.629555 0.807898 0
0.576477 0.796148 0
0.521558 0.786478 0
0.46507 0.778413 0
0.407235 0.771575 0
0.348229 0.765653 0
0.288185 0.760388 0
0.227197 0.755555 0
0.165321 0.750946 0
0.102584 0.746369 0
0.0389742 0.741628 0
-0.025549 0.73652 0
-0.0910631 0.73082 0
-0.157683 0.724267 0
-0.225565 0.71655 0
-0.294908 0.707283 0
-0.365962 0.695977 0
-0.439025 0.681993 0
-0.514442 0.664485 0
-0.592587 0.642302 0
-0.673814 0.613858 0
-0.758338 0.576943 0
-0.845968 0.528482 0
-0.935502 0.464364 0
-1.02344 0.380003 0
-1.10158 0.272304 0
-1.15739 0.142866 0
0.848814 0.8464 0
0.80009 0.815847 0
0.749532 0.791084 0
0.697181 0.770979 0
0.643168 0.754586 0
0.587668 0.74113 0
0.53086 0.729987 0
0.47291 0.72065 0
0.413964 0.712704 0
0.354138 0.705805 0
0.293526 0.699661 0
0.232194 0.694012 0
0.170183 0.688624 0
0.107511 0.683275 0
0.044176 0.677742 0
-0.0198509 0.671792 0
-0.0846195 0.665171 0
-0.150203 0.657586 0
-0.216698 0.648695 0
-0.284221 0.63808 0
-0.352906 0.625223 0
-0.422889 0.609468 0
-0.494296 0.589972 0
-0.567191 0.565646 0
-0.6415 0.535075 0
-0.716858 0.49645 0
-0.792331 0.447541 0
-0.865946 0.385891 0
-0.934004 0.309428 0
-0.990728 0.217606 0
-1.02897 0.112645 0
0.882638 0.795009 0
0.827662 0.763341 0
0.772014 0.737332 0
0.715561 0.715971 0
0.658268 0.698385 0
0.600161 0.68384 0
0.541295 0.67172 0
0.48174 0.661517 0
0.421563 0.652803 0
0.360827 0.645216 0
0.299581 0.638444 0
0.237862 0.632211 0
0.175696 0.626264 0
0.113096 0.620362 0
0.0500624 0.614265 0
-0.0134181 0.607724 0
-0.0773681 0.600467 0
-0.14182 0.592188 0
-0.20681 0.582531 0
-0.272377 0.571076 0
-0.338546 0.557309 0
-0.405315 0.540602 0
-0.472623 0.520183 0
-0.540297 0.495098 0
-0.607971 0.464192 0
-0.674945 0.426112 0
-0.739993 0.379394 0
-0.801094 0.322692 0
-0.855237 0.255221 0
-0.898502 0.177341 0
-0.926702 0.0910448 0
0.916926 0.736853 0
0.855954 0.705222 0
0.795332 0.678982 0
0.734799 0.657233 0
0.674192 0.639186 0
0.613414 0.624157 0
0.552419 0.611566 0
0.491189 0.600918 0
0.429721 0.591791 0
0.368022 0.583822 0
0.306102 0.576695 0
0.243972 0.570128 0
0.18164 0.563859 0
0.119112 0.557641 0
0.056392 0.551227 0
-0.00651853 0.544361 0
-0.069617 0.536769 0
-0.132897 0.528144 0
-0.196343 0.518138 0
-0.259921 0.506344 0
-0.323569 0.492285 0
-0.387169 0.475391 0
-0.450525 0.45499 0
-0.513303 0.430298 0
-0.574972 0.400427 0
-0.634699 0.364427 0
-0.691239 0.321392 0
-0.74283 0.270646 0
-0.787174 0.21202 0
-0.821621 0.146142 0
-0.843583 0.0746229 0
0.950531 0.672334 0
0.883938 0.641747 0
0.818593 0.616178 0
0.754136 0.594831 0
0.6903 0.577 0
0.626894 0.562067 0
0.563785 0.549495 0
0.500878 0.538818 0
0.438109 0.529636 0
0.375437 0.521598 0
0.312834 0.514394 0
0.250284 0.507749 0
0.187779 0.501404 0
0.12532 0.495114 0
0.0629118 0.488635 0
0.000569491 0.481715 0
-0.061682 0.474089 0
-0.123803 0.465462 0
-0.185732 0.455507 0
-0.24738 0.44385 0
-0.308611 0.43006 0
-0.369228 0.413646 0
-0.428939 0.394049 0
-0.487323 0.370651 0
-0.543777 0.342796 0
-0.597459 0.309845 0
-0.647237 0.271263 0
-0.691658 0.226757 0
-0.729006 0.17643 0
-0.757448 0.120933 0
-0.775313 0.0615238 0
0.982457 0.601946 0
0.910711 0.573284 0
0.840998 0.54918 0
0.772875 0.52894 0
0.705997 0.511945 0
0.640093 0.497642 0
0.574958 0.485549 0
0.510434 0.475242 0
0.446404 0.46635 0
0.382784 0.458547 0
0.319514 0.451542 0
0.256552 0.445073 0
0.193876 0.438895 0
0.131479 0.432773 0
0.0693685 0.426477 0
0.00757047 0.419768 0
-0.0538716 0.412397 0
-0.114891 0.404094 0
-0.17539 0.394561 0
-0.235235 0.383465 0
-0.294239 0.370437 0
-0.35215 0.355063 0
-0.408621 0.336895 0
-0.463193 0.31546 0
-0.515252 0.290291 0
-0.564012 0.260968 0
-0.608486 0.227193 0
-0.647508 0.188877 0
-0.679785 0.14623 0
-0.70402 0.0998345 0
-0.719082 0.0506592 0
1.01184 0.526262 0
0.935488 0.500288 0
0.861842 0.478342 0
0.790398 0.45983 0
0.720742 0.444218 0
0.652542 0.431028 0
0.585532 0.419835 0
0.519504 0.410265 0
0.454298 0.401987 0
0.389789 0.394707 0
0.32589 0.388162 0
0.262539 0.382111 0
0.199698 0.376331 0
0.137355 0.370606 0
0.075519 0.364726 0
0.0142225 0.358475 0
-0.0464753 0.351628 0
-0.106486 0.343944 0
-0.165686 0.335163 0
-0.223909 0.325 0
-0.280933 0.313145 0
-0.336472 0.299264 0
-0.390155 0.283006 0
-0.441513 0.26402 0
-0.489959 0.241977 0
-0.534782 0.216611 0
-0.57514 0.187767 0
-0.610095 0.155458 0
-0.638658 0.119918 0
-0.659885 0.0816352 0
-0.672979 0.0413476 0
1.03795 0.445919 0
0.957594 0.423284 0
0.880517 0.404089 0
0.806159 0.38784 0
0.734053 0.374088 0
0.663817 0.362432 0
0.595139 0.352512 0
0.527767 0.344008 0
0.461503 0.336635 0
0.396195 0.33014 0
0.331728 0.324292 0
0.268023 0.318881 0
0.205031 0.313712 0
0.142733 0.308594 0
0.0811384 0.303344 0
0.020286 0.297773 0
-0.0397543 0.291688 0
-0.0988783 0.284883 0
-0.156943 0.277138 0
-0.213759 0.268219 0
-0.269085 0.257874 0
-0.322616 0.245841 0
-0.373974 0.231854 0
-0.422701 0.215656 0
-0.468248 0.197022 0
-0.509979 0.175787 0
-0.547179 0.15188 0
-0.579083 0.125359 0
-0.604919 0.0964399 0
-0.623974 0.0655139 0
-0.635664 0.0331377 0
1.06015 0.361613 0
0.976458 0.342857 0
0.896504 0.326906 0
0.819693 0.313366 0
0.745518 0.301877 0
0.673555 0.292113 0
0.603456 0.283785 0
0.534936 0.27663 0
0.467767 0.270415 0
0.401772 0.264932 0
0.336815 0.259989 0
0.272804 0.255414 0
0.209679 0.251041 0
0.147417 0.246714 0