# vtk DataFile Version 2.0
FeenoX VTK output
ASCII
DATASET UNSTRUCTURED_GRID
POINTS 275 double
0 0 0
1 0 0
1 1 0
0 1 0
2 0 0
2 1 0
0.1 0 0
0.2 0 0
0.3 0 0
0.4 0 0
0.5 0 0
0.6 0 0
0.7 0 0
0.8 0 0
0.9 0 0
1 0.1 0
1 0.2 0
1 0.3 0
1 0.4 0
1 0.5 0
1 0.6 0
1 0.7 0
1 0.8 0
1 0.9 0
0.9 1 0
0.8 1 0
0.7 1 0
0.6 1 0
0.5 1 0
0.4 1 0
0.3 1 0
0.2 1 0
0.1 1 0
0 0.9 0
0 0.8 0
0 0.7 0
0 0.6 0
0 0.5 0
0 0.4 0
0 0.3 0
0 0.2 0
0 0.1 0
1.1 0 0
1.2 0 0
1.3 0 0
1.4 0 0
1.5 0 0
1.6 0 0
1.7 0 0
1.8 0 0
1.9 0 0
2 0.1 0
2 0.2 0
2 0.3 0
2 0.4 0
2 0.5 0
2 0.6 0
2 0.7 0
2 0.8 0
2 0.9 0
1.9 1 0
1.8 1 0
1.7 1 0
1.6 1 0
1.5 1 0
1.4 1 0
1.3 1 0
1.2 1 0
1.1 1 0
0.0866025 0.45 0
0.915222 0.54684 0
0.55 0.0866025 0
0.45 0.913397 0
0.35 0.0833083 0
0.913397 0.35 0
0.0866025 0.65 0
0.65 0.913397 0
0.745979 0.0795923 0
0.91037 0.758673 0
0.255667 0.918147 0
0.0861307 0.250817 0
0.849576 0.915323 0
0.0846772 0.849576 0
0.91705 0.150593 0
0.158611 0.0957913 0
0.55 0.913397 0
0.5 0.826795 0
0.4 0.826795 0
0.450753 0.739758 0
0.550125 0.74012 0
0.500146 0.653505 0
0.40581 0.655753 0
0.450993 0.567334 0
0.55019 0.567031 0
0.500197 0.48045 0
0.600064 0.480403 0
0.400198 0.480453 0
0.45 0.393782 0
0.35191 0.39271 0
0.650042 0.566998 0
0.704484 0.483659 0
0.650758 0.394331 0
0.308159 0.473509 0
0.402788 0.308427 0
0.3 0.30718 0
0.500465 0.307388 0
0.451098 0.223559 0
0.751621 0.57013 0
0.700198 0.653965 0
0.753545 0.398725 0
0.7 0.30718 0
0.8 0.65359 0
0.747132 0.73858 0
0.55 0.220577 0
0.810982 0.304754 0
0.748774 0.221563 0
0.600021 0.826783 0
0.915774 0.449473 0
0.816802 0.489981 0
0.0866025 0.55 0
0.172322 0.601529 0
0.173058 0.700255 0
0.256524 0.641274 0
0.259703 0.749184 0
0.45 0.0847511 0
0.0865239 0.350136 0
0.168646 0.406977 0
0.1891 0.306083 0
0.16594 0.200603 0
0.550247 0.393922 0
0.256452 0.0846887 0
0.308216 0.157765 0
0.899418 0.652898 0
0.749929 0.913718 0
0.815119 0.818333 0
0.65 0.0866025 0
0.913247 0.250891 0
0.350945 0.915457 0
0.0862571 0.749972 0
0.164617 0.801677 0
0.166626 0.503689 0
0.702034 0.825167 0
0.600117 0.653635 0
0.600245 0.307329 0
0.649956 0.739847 0
0.343663 0.578171 0
0.65 0.220577 0
0.357619 0.745932 0
0.844093 0.0938543 0
0.0806479 0.153403 0
0.158181 0.905863 0
0.916763 0.850875 0
0.308839 0.833394 0
0.246395 0.542104 0
0.838053 0.2 0
0.840695 0.399279 0
0.261264 0.387279 0
0.351672 0.23176 0
0.257504 0.226536 0
0.5 0.15359 0
0.7 0.15359 0
0.6 0.15359 0
0.4 0.153439 0
0.832596 0.730144 0
0.836613 0.582688 0
0.0732051 0.0732051 0
0.926795 0.0732051 0
0.0732051 0.926795 0
0.926795 0.926795 0
0.77538 0.14972 0
0.230637 0.458665 0
0.329445 0.669697 0
0.229903 0.155111 0
0.229101 0.844848 0
1.08397 0.558456 0
1.51489 0.0826412 0
1.53961 0.918413 0
1.90911 0.471605 0
1.36039 0.0797448 0
1.34455 0.893595 0
1.09903 0.371791 0
1.88702 0.668654 0
1.70936 0.0874095 0
1.7237 0.914984 0
1.08383 0.710386 0
1.90827 0.28233 0
1.19596 0.0883563 0
1.18369 0.90884 0
1.91671 0.845698 0
1.29245 0.0835132 0
1.29652 0.168109 0
1.40586 0.146008 0
1.29927 0.257128 0
1.40545 0.254617 0
1.40199 0.349122 0
1.51177 0.34768 0
1.51294 0.435495 0
1.51828 0.522862 0
1.62399 0.52403 0
1.41628 0.530108 0
1.42638 0.613962 0
1.61841 0.348165 0
1.35851 0.613621 0
1.32924 0.556579 0
1.42098 0.716107 0
1.53603 0.698309 0
1.32541 0.669596 0
1.29524 0.349861 0
1.47271 0.801241 0
1.55282 0.777155 0
1.63009 0.691355 0
1.63789 0.765593 0
1.69578 0.691362 0
1.71814 0.74766 0
1.79618 0.71523 0
1.73467 0.630103 0
1.51273 0.256825 0
1.61701 0.260305 0
1.71936 0.351595 0
1.71725 0.263916 0
1.81544 0.361217 0
1.721 0.440127 0
1.35208 0.791594 0
1.2828 0.746646 0
1.18627 0.697777 0
1.90942 0.757159 0
1.27085 0.910148 0
1.80741 0.0895077 0
1.81178 0.180086 0
1.71391 0.175978 0
1.60969 0.0859036 0
1.6276 0.919091 0
1.19551 0.176454 0
1.0967 0.186703 0
1.19635 0.265923 0
1.25925 0.612188 0
1.19547 0.542488 0
1.51528 0.166787 0
1.61938 0.436408 0
1.72395 0.529145 0
1.62566 0.612159 0
1.81635 0.540779 0
1.61435 0.172505 0
1.90842 0.378245 0
1.11104 0.466765 0
1.19505 0.422909 0
1.07759 0.643194 0
1.44661 0.0785487 0
1.90572 0.567044 0
1.40513 0.443004 0
1.52516 0.612343 0
1.46442 0.897728 0
1.0889 0.806145 0
1.90655 0.188524 0
1.81842 0.912475 0
1.84064 0.810714 0
1.1793 0.813367 0
1.81268 0.608843 0
1.1285 0.605937 0
1.19601 0.355489 0
1.81571 0.453238 0
1.28093 0.46194 0
1.31757 0.83741 0
1.09747 0.280973 0
1.40824 0.847663 0
1.55782 0.8464 0
1.63936 0.840327 0
1.49931 0.848261 0
1.81337 0.271742 0
1.09801 0.0936654 0
1.90967 0.910674 0
1.09324 0.903946 0
1.9037 0.0943254 0
1.26265 0.826173 0
1.7288 0.828579 0

CELLS 368 1592
3  109 118 100
3  78 151 134
3  134 163 78
3  114 136 74
3  104 156 127
3  109 155 118
3  114 154 136
3  100 118 107
3  127 158 104
3  127 156 126
3  122 153 145
3  74 155 114
3  145 171 122
3  134 151 81
3  139 150 82
3  132 163 111
3  128 149 84
3  87 152 147
3  104 158 157
3  83 154 148
3  115 154 114
3  139 173 150
3  84 172 128
3  157 158 131
3  111 164 132
3  78 163 132
3  147 152 123
3  154 169 148
3  134 141 112
3  100 107 99
3  105 143 129
3  75 138 35
3  143 146 110
3  113 146 143
3  92 96 94
3  95 99 93
3  7 130 84
3  9 73 8
3  71 124 10
3  12 135 11
3  34 82 33
3  34 138 82
3  37 119 36
3  119 120 75
3  95 100 99
3  108 144 142
3  77 135 12
3  16 136 83
3  18 74 17
3  18 117 74
3  70 117 19
3  21 132 20
3  22 78 21
3  78 132 21
3  25 81 24
3  26 133 25
3  25 133 81
3  76 133 26
3  28 85 27
3  27 85 76
3  29 137 72
3  31 79 30
3  79 137 30
3  70 118 117
3  72 87 86
3  85 116 76
3  133 134 81
3  138 139 82
3  87 88 86
3  89 116 86
3  88 91 90
3  90 142 89
3  142 144 89
3  93 142 90
3  91 145 92
3  107 108 99
3  107 111 108
3  112 144 108
3  119 140 120
3  123 139 121
3  125 127 126
3  133 141 134
3  7 84 6
3  13 77 12
3  35 138 34
3  39 125 38
3  38 125 69
3  40 80 39
3  125 126 69
3  94 95 93
3  10 124 9
3  9 124 73
3  16 83 15
3  38 69 37
3  92 94 93
3  96 97 94
3  96 145 102
3  98 103 97
3  101 109 100
3  8 130 7
3  80 127 125
3  95 129 101
3  96 98 97
3  96 102 98
3  105 129 97
3  98 104 103
3  103 106 105
3  113 143 105
3  110 114 109
3  17 136 16
3  19 117 18
3  29 72 28
3  72 85 28
3  30 137 29
3  36 119 75
3  69 119 37
3  80 125 39
3  69 140 119
3  126 140 69
3  72 86 85
3  72 137 87
3  116 141 76
3  88 89 86
3  88 90 89
3  89 144 116
3  91 92 90
3  94 129 95
3  108 142 99
3  110 115 114
3  121 139 138
3  11 135 71
3  121 138 75
3  80 128 127
3  103 105 97
3  101 143 110
3  129 143 101
3  110 146 115
3  73 131 130
3  120 121 75
3  97 129 94
3  106 113 105
3  120 122 121
3  122 123 121
3  73 130 8
3  11 71 10
3  36 75 35
3  92 145 96
3  95 101 100
3  74 136 17
3  20 70 19
3  27 76 26
3  76 141 133
3  86 116 85
3  92 93 90
3  99 142 93
3  101 110 109
3  111 112 108
3  20 132 70
3  141 144 112
3  116 144 141
3  87 147 88
3  32 150 31
3  41 149 40
3  14 148 13
3  23 151 22
3  80 149 128
3  137 152 87
3  140 153 120
3  114 155 109
3  118 155 117
3  88 147 91
3  102 156 98
3  40 149 80
3  13 148 77
3  22 151 78
3  31 150 79
3  140 170 153
3  104 157 103
3  73 162 131
3  112 163 134
3  132 164 70
3  79 152 137
3  145 153 102
3  122 171 123
3  2 168 23
3  1 166 14
3  6 165 0
3  15 166 1
3  24 168 2
3  3 167 32
3  0 165 41
3  33 167 3
3  130 172 84
3  91 171 145
3  123 171 147
3  120 153 122
3  153 170 102
3  128 158 127
3  136 154 83
3  117 155 74
3  98 156 104
3  123 173 139
3  150 173 79
3  118 164 107
3  131 162 157
3  103 157 106
3  107 164 111
3  106 162 159
3  71 161 159
3  159 161 113
3  71 159 124
3  146 161 160
3  113 161 146
3  106 159 113
3  77 160 135
3  146 160 115
3  160 161 135
3  135 161 71
3  152 173 123
3  159 162 124
3  124 162 73
3  111 163 112
3  70 164 118
3  148 169 77
3  14 166 148
3  41 165 149
3  32 167 150
3  23 168 151
3  82 167 33
3  84 165 6
3  83 166 15
3  81 168 24
3  126 170 140
3  102 170 156
3  131 172 130
3  151 168 81
3  148 166 83
3  150 167 82
3  149 165 84
3  157 162 106
3  147 171 91
3  79 173 152
3  128 172 158
3  158 172 131
3  156 170 126
3  115 169 154
3  77 169 160
3  160 169 115
4  253 185 268 228
4  248 241 260 177
4  181 225 255 214
4  259 207 261 245
4  244 180 259 245
4  16 15 269 233
4  184 246 258 224
4  244 236 258 174
4  220 268 185 243
4  259 180 263 234
4  244 174 20 19
4  237 242 217 216
4  65 66 226 179
4  191 237 216 193
4  215 212 210 240
4  182 229 242 230
4  44 189 186 43
4  47 48 182 230
4  48 49 227 182
4  229 182 227 228
4  19 18 180 244
4  175 247 45 46
4  55 177 243 54
4  231 63 64 176
4  186 189 190 232
4  221 238 201 218
4  223 206 204 222
4  45 178 189 44
4  66 67 187 226
4  221 239 198 238
4  206 202 200 204
4  250 205 204 200
4  205 210 211 209
4  194 193 216 195
4  250 200 199 197
4  215 240 198 239
4  209 208 204 205
4  65 251 176 64
4  242 229 219 217
4  184 21 20 246
4  57 181 248 56
4  46 47 230 175
4  181 57 58 225
4  189 178 191 190
4  190 191 193 192
4  213 212 215 214
4  183 62 63 231
4  54 243 185 53
4  235 206 223 224
4  56 248 177 55
4  232 190 192 234
4  249 196 197 199
4  197 196 238 198
4  205 250 240 210
4  201 217 219 218
4  195 216 217 201
4  191 178 45 247
4  237 175 230 242
4  238 196 195 201
4  197 198 240 250
4  203 199 200 202
4  213 211 210 212
4  175 237 191 247
4  195 196 249 194
4  207 192 193 194
4  206 235 203 202
4  244 245 261 236
4  220 243 177 260
4  181 214 215 257
4  53 185 253 52
4  21 184 252 22
4  62 183 254 61
4  192 207 259 234
4  239 221 260 241
4  235 236 261 203
4  194 249 261 207
4  18 17 263 180
4  229 228 268 219
4  232 233 269 186
4  60 270 59 5
4  42 269 15 1
4  50 4 51 272
4  68 2 23 271
4  58 188 255 225
4  239 241 257 215
4  241 248 181 257
4  20 174 258 246
4  224 258 236 235
4  224 256 252 184
4  256 273 226 187
4  218 220 260 221
4  199 203 261 249
4  179 262 222 264
4  65 179 264 251
4  266 231 176 265
4  204 208 264 222
4  233 263 17 16
4  251 267 265 176
4  266 265 209 211
4  232 234 263 233
4  208 209 265 267
4  208 267 251 264
4  218 219 268 220
4  255 254 183 274
4  52 253 272 51
4  61 254 270 60
4  22 252 271 23
4  58 59 270 188
4  43 186 269 42
4  49 50 272 227
4  67 68 271 187
4  228 227 272 253
4  255 188 270 254
4  256 187 271 252
4  214 255 274 213
4  224 223 273 256
4  222 262 273 223
4  179 226 273 262
4  211 213 274 266
4  231 266 274 183

CELL_TYPES 368
5
5
5
5
5
5
5
5
5
5
5
5
5
5
5
5
5
5
5
5
5
5
5
5
5
5
5
5
5
5
5
5
5
5
5
5
5
5
5
5
5
5
5
5
5
5
5
5
5
5
5
5
5
5
5
5
5
5
5
5
5
5
5
5
5
5
5
5
5
5
5
5
5
5
5
5
5
5
5
5
5
5
5
5
5
5
5
5
5
5
5
5
5
5
5
5
5
5
5
5
5
5
5
5
5
5
5
5
5
5
5
5
5
5
5
5
5
5
5
5
5
5
5
5
5
5
5
5
5
5
5
5
5
5
5
5
5
5
5
5
5
5
5
5
5
5
5
5
5
5
5
5
5
5
5
5
5
5
5
5
5
5
5
5
5
5
5
5
5
5
5
5
5
5
5
5
5
5
5
5
5
5
5
5
5
5
5
5
5
5
5
5
5
5
5
5
5
5
5
5
5
5
5
5
5
5
5
5
5
5
5
5
5
5
5
5
5
5
5
5
5
5
5
5
5
5
5
5
5
5
5
5
5
5
5
5
5
5
5
5
5
5
5
5
5
5
5
5
9
9
9
9
9
9
9
9
9
9
9
9
9
9
9
9
9
9
9
9
9
9
9
9
9
9
9
9
9
9
9
9
9
9
9
9
9
9
9
9
9
9
9
9
9
9
9
9
9
9
9
9
9
9
9
9
9
9
9
9
9
9
9
9
9
9
9
9
9
9
9
9
9
9
9
9
9
9
9
9
9
9
9
9
9
9
9
9
9
9
9
9
9
9
9
9
9
9
9
9
9
9
9
9
9
9
9
9
9
9
9
9
9
9
9
9
9
9
9
9
POINT_DATA 275
SCALARS T double
LOOKUP_TABLE default
0
1.03365
1.04976
1
2
1
0.297305
0.461216
0.580737
0.674865
0.753478
0.821475
0.881915
0.936635
0.986985
1.0345
1.03734
1.04181
1.04663
1.05
1.05121
1.05108
1.05049
1.04995
1.01412
0.978278
0.943282
0.910439
0.881509
0.859014
0.846878
0.852352
0.887102
0.9
0.8
0.7
0.6
0.5
0.4
0.3
0.2
0.1
1.10197
1.16865
1.23296
1.29482
1.35633
1.42588
1.51072
1.61969
1.76294
1.9
1.8
1.7
1.6
1.5
1.4
1.3
1.2
1.1
1.13888
1.18604
1.20543
1.20724
1.19687
1.17697
1.15108
1.11981
1.08556
0.530984
1.01355
0.790537
0.866151
0.633938
1.00413
0.686535
0.925129
0.908596
1.01619
0.839619
0.385397
0.995606
0.832848
0.99741
0.413783
0.893275
0.871605
0.844155
0.843406
0.877879
0.845727
0.808939
0.806691
0.85231
0.812322
0.863023
0.758458
0.766022
0.703411
0.897431
0.913966
0.878155
0.703081
0.715999
0.63795
0.78087
0.734438
0.942792
0.927495
0.930367
0.895757
0.968738
0.952112
0.800776
0.952437
0.915745
0.903838
1.00993
0.966766
0.608742
0.690544
0.748318
0.746345
0.79202
0.718418
0.455491
0.571952
0.537613
0.461874
0.824141
0.538725
0.604842
1.00982
0.959732
0.981176
0.853869
0.999308
0.846935
0.762325
0.801156
0.628347
0.93965
0.886283
0.840789
0.914828
0.759523
0.861188
0.815839
0.960226
0.314353
0.846548
1.01962
0.827093
0.696462
0.960507
0.972376
0.637083
0.659473
0.573139
0.760703
0.885528
0.826568
0.685182
0.985138
0.980662
0.257109
1.00031
0.88299
1.02362
0.926396
0.646716
0.784217
0.522443
0.82163
1.08945
1.36277
1.20489
1.47449
1.26851
1.16579
1.10269
1.31595
1.51184
1.20957
1.08488
1.62292
1.16583
1.11532
1.18544
1.22728
1.22548
1.29053
1.21931
1.27654
1.25964
1.3157
1.29538
1.27576
1.3173
1.23339
1.22196
1.37352
1.19798
1.19465
1.20402
1.23856
1.17952
1.2065
1.20557
1.22551
1.26196
1.24136
1.27428
1.25533
1.2773
1.31044
1.33553
1.39804
1.43244
1.46647
1.49132
1.39439
1.17503
1.15722
1.12584
1.25129
1.14357
1.61663
1.58773
1.49422
1.42798
1.21219
1.16445
1.10127
1.16162
1.16065
1.14047
1.35274
1.34545
1.35452
1.28747
1.38392
1.41715
1.54758
1.10609
1.14987
1.08431
1.32019
1.39728
1.24456
1.25582
1.19407
1.08418
1.69246
1.19018
1.22507
1.11688
1.3413
1.1075
1.1557
1.43666
1.18605
1.16126
1.10255
1.18566
1.21473
1.2242
1.20516
1.54113
1.10107
1.1491
1.0838
1.7492
1.14469
1.22903
CELL_DATA 368
SCALARS k double
LOOKUP_TABLE default
1.43703
1.50566
1.49417
1.48529
1.10422
1.4565
1.47075
1.44117
1.0829
1.08222
1.23411
1.47632
1.26336
1.4988
1.32685
1.4879
0.89667
1.32903
1.12352
1.47271
1.4429
1.32311
0.966033
1.11248
1.48641
1.50372
1.31165
1.44904
1.45765
1.41806
1.31527
1.21629
1.36591
1.33425
1.29249
1.37092
0.971241
1.12985
1.25414
1.35242
1.34428
1.29839
1.06958
1.16194
1.39147
1.40954
1.38146
1.51135
1.53086
1.52023
1.5245
1.53737
1.53925
1.5257
1.496
1.46043
1.47787
1.44271
1.39507
1.40961
1.35737
1.34628
1.34448
1.49675
1.36064
1.40741
1.47884
1.29878
1.35306
1.38444
1.33269
1.36996
1.393
1.36144
1.29172
1.42257
1.44634
1.43148
1.14254
1.2805
1.02169
1.46019
0.890768
1.40905
1.25411
0.885164
0.962158
0.795132
1.01948
1.34255
1.21559
1.17574
1.52308
0.976995
1.32377
1.27893
1.24035
1.22848
1.4075
1.02689
0.9595
1.35511
1.24263
1.22165
1.29034
1.18579
1.24377
1.30748
1.42619
1.52615
1.53552
1.36889
1.38031
1.35094
1.13176
1.04658
0.880296
1.08936
1.07709
1.37701
1.35241
1.42287
1.3643
1.35567
1.39885
1.32045
1.33316
1.40374
1.42131
1.2706
1.32196
1.23239
0.961628
1.2543
1.37157
1.3477
1.3909
1.0925
1.20847
1.30083
1.27203
1.2284
1.26223
1.08447
1.2885
1.16218
1.27489
1.38505
1.51508
1.53825
1.42628
1.4415
1.38957
1.33491
1.37867
1.40143
1.44945
1.52486
1.43553
1.41944
1.33447
1.362
0.704784
1.46128
1.54002
0.887208
1.33939
1.17178
1.45173
1.48302
1.32273
1.18119
0.799917
1.43515
1.52877
1.34617
1.15718
1.17114
1.14132
1.47281
1.50135
1.33788
1.21969
1.27419
1.54111
1.50698
0.684804
1.52282
1.52916
1.42336
0.619036
1.42766
0.99165
1.28423
1.29736
1.21112
1.18209
1.02421
1.48574
1.49548
1.15948
1.30494
1.33593
1.46341
1.14983
1.2033
1.46406
1.22677
1.2926
1.29602
1.25655
1.35776
1.32951
1.26531
1.38266
1.38749
1.35532
1.32366
1.31358
1.22143
1.17918
1.46866
1.48699
1.43174
1.48251
0.723821
1.37221
1.53106
1.37195
0.822732
1.51074
1.51111
1.11567
1.16229
1.05534
1.51295
1.48598
1.35413
0.828415
1.19303
1.303
1.32945
1.01915
1.06681
1.11858
1.43422
1.40684
1.40922
1.37111
1.65212
1.76849
1.58171
1.45174
1.01281
1.55151
1.55433
1.46892
1.28927
1.4745
1.59834
1.5556
1.57479
1.70362
1.44632
1.06258
1.37672
1.33054
1.36709
1.35629
1.34576
1.53681
1.71477
1.12832
1.67695
1.65913
1.16717
1.51817
1.69157
1.68738
1.6959
1.70302
1.66218
1.69893
1.69705
1.69218
1.65441
1.5466
1.51806
1.73525
1.40089
1.78013
1.2727
1.45939
1.72141
1.76346
1.41702
1.63651
1.6515
1.27486
1.69954
1.69882
1.69899
1.6333
1.66639
1.3134
1.4967
1.69297
1.69883
1.69332
1.71421
1.45859
1.69323
1.60581
1.67731
1.58669
1.57585
1.72354
1.33784
1.51146
1.78954
1.46112
1.67353
1.66025
1.67007
1.18571
1.44856
1.03999
1.79983
1.00126
1.30071
1.50035
1.79186
1.69536
1.70356
1.52717
1.61015
1.53162
1.53139
1.63449
1.69003
1.61519
1.61769
1.72031
1.66594
1.06294
1.68717
1.71236
1.12584
1.69286
1.66829
1.5559
1.78278
1.30748
1.79812
1.5031
1.79827
1.01304
1.30687
1.50364
1.32183
1.79532
1.51014
1.75815
1.57086
1.60381
1.56807
1.73491
1.75557
